TITLE = "Example: FE-Volume Brick Data"
VARIABLES = "X", "Y", "Z", "Temperature"
ZONE N=8, E=1,F=FEPOINT, ET=BRICK
0.0 0.0 0.0 1.0
1.0 0.0 0.0 10.0
1.0 0.0 1.0 10.0
0.0 0.0 1.0 1.0
0.0 1.0 0.0 1.0
1.0 1.0 0.0 10.0
1.0 1.0 1.0 10.0
0.0 1.0 1.0 1.0

4 3 2 1 8 7 6 5